
Host: nickrubin-macbookpro.roam.corp.google.c

Timers On : Tue Apr  7 15:34:27 2020
Timers Off: Tue Apr  7 15:36:27 2020

Wall Time:      120.03 seconds

                                                       Time (seconds)
Module                                       User      System        Wall        Calls

--------------------------------------------------------------------------------------

**************************************************************************************

Host: nickrubin-macbookpro.roam.corp.google.c

Timers On : Tue Apr  7 15:36:50 2020
Timers Off: Tue Apr  7 15:37:50 2020

Wall Time:       59.57 seconds

                                                       Time (seconds)
Module                                       User      System        Wall        Calls

--------------------------------------------------------------------------------------

**************************************************************************************

Host: nickrubin-macbookpro.roam.corp.google.c

Timers On : Tue Apr  7 15:37:54 2020
Timers Off: Tue Apr  7 15:38:27 2020

Wall Time:       32.85 seconds

                                                       Time (seconds)
Module                                       User      System        Wall        Calls

--------------------------------------------------------------------------------------

**************************************************************************************

Host: nickrubin-macbookpro.roam.corp.google.c

Timers On : Tue Apr  7 15:48:36 2020
Timers Off: Tue Apr  7 15:49:02 2020

Wall Time:       25.50 seconds

                                                       Time (seconds)
Module                                       User      System        Wall        Calls

--------------------------------------------------------------------------------------

**************************************************************************************

Host: nickrubin-macbookpro.roam.corp.google.c

Timers On : Tue Apr  7 17:30:24 2020
Timers Off: Tue Apr  7 17:30:50 2020

Wall Time:       25.79 seconds

                                                       Time (seconds)
Module                                       User      System        Wall        Calls

--------------------------------------------------------------------------------------

**************************************************************************************
